% Model:              Ass1_Comsol_state12.mph
% Version:            COMSOL 5.2.0.166
% Date:               Apr 6 2017, 15:02
% Table:              Table 1 - Global Evaluation 1 (Ca)
% d0                     Ca (F)                   C1 (F/m)                 C2 (F/m)
0.001                    4.4270939085E-9          4.461934733440042E-5     5.122316946439271E-13
0.1                      4.4270939085E-11         5.619081446296497E-7     -1.289457623781184E-12
0.2                      2.21354695425E-11        3.138623533331805E-7     -1.8163145160903707E-12
0.4                      1.106773477125E-11       1.7593466715827854E-7    -2.6162142698988865E-13
0.6                      7.3784898475E-12         1.2245622839706867E-7    -1.8597348477495398E-12
0.8                      5.533867385625E-12       8.711539243719533E-8     -1.886079508618519E-13
